# Converted from POSCAR to lammps format

3000 atoms
3 atom types

0.000000  32.1429294991245911   xlo xhi
0.000000  32.1429294991245911   ylo yhi
0.000000  32.1429294991245911   zlo zhi

0.0000000000000519  0.0000000000000519  0.0000000000000519   xy xz yz

Masses

1 15.99939999999999968  # O
2 12.01069999999999993  # C
3 1.00794000000000006  # H

Atoms

   1  1     1.0004109999999999 28.9506560000000235 12.8216070000000002
   2  1     1.1635770000000003 31.1428790000000220 13.4567099999999993
   3  1     2.0468519999999999 30.4215360000000175 11.4760259999999992
   4  1     29.1554929999999999 11.5369890000000126 6.6574059999999999
   5  1     29.2136770000000006 12.5501180000000137 8.7082619999999995
   6  1     30.2889820000000007 13.4656820000000099 6.9112980000000004
   7  1     11.3250190000000011 19.2556130000000323 18.9731200000000015
   8  1     10.8405860000000001 17.2772510000000317 20.0158250000000031
   9  1     9.7281139999999997 17.9148080000000327 18.1238549999999989
  10  1     24.9798040000000015 30.1672130000000145 9.4054090000000024
  11  1     23.7592789999999994 30.6717460000000095 7.5368290000000000
  12  1     26.0090150000000015 30.2904460000000100 7.4067460000000009
  13  1     20.8690350000000002 8.9946960000000491 31.1428930000000008
  14  1     22.3299480000000017 7.2337340000000516 31.1190250000000006
  15  1     20.8494460000000004 7.5591850000000473 29.4085230000000024
  16  1     23.7874960000000044 23.1237880000000331 20.5927469999999992
  17  1     24.7226399999999984 21.2821540000000304 19.6080070000000006
  18  1     25.2505980000000001 21.8664440000000369 21.7535799999999995
  19  1     15.3421960000000013 7.0392980000000156 9.5261340000000008
  20  1     16.2479040000000019 5.3770470000000179 10.8116070000000022
  21  1     15.9367210000000004 7.4792930000000197 11.6526470000000000
  22  1     1.0665530000000001 4.7074710000000035 2.0807630000000001
  23  1     1.7736550000000000 2.7053860000000016 1.2278340000000001
  24  1     3.0456629999999998 4.5921030000000016 1.0135570000000000
  25  1     17.0874780000000008 9.4422690000000244 14.9173910000000003
  26  1     18.1075359999999996 8.4691880000000221 13.1150540000000007
  27  1     18.0095169999999989 7.3995480000000251 15.1324489999999994
  28  1     1.0000110000000000 19.1103830000000201 12.8738750000000000
  29  1     1.0350040000000000 18.7783700000000167 10.6101690000000008
  30  1     2.5576079999999997 20.1491160000000171 11.6232590000000009
  31  1     1.0982939999999999 25.2092680000000158 9.0731090000000005
  32  1     1.0005750000000000 24.8359730000000134 6.8176880000000004
  33  1     2.8283239999999998 24.2074630000000184 8.0374949999999998
  34  1     2.8542410000000000 21.2848790000000356 21.3668179999999985
  35  1     4.8074130000000013 22.3640600000000305 20.8605480000000014
  36  1     3.0051340000000004 23.5101730000000408 21.6740830000000031
  37  1     15.5695160000000001 9.7230660000000473 29.2717120000000008
  38  1     16.6507499999999986 9.1346950000000451 27.3428320000000014
  39  1     16.6042330000000042 7.7275790000000475 29.1432440000000028
  40  1     18.0785739999999997 0.9991980000000114 6.9900900000000004
  41  1     18.9193239999999996 1.8331230000000145 8.9480310000000003
  42  1     18.6247480000000003 3.1792680000000115 7.1246440000000009
  43  1     20.5180229999999995 11.0125250000000428 26.2546250000000008
  44  1     19.4091280000000026 11.9953850000000450 27.9982310000000005
  45  1     18.2839309999999990 10.7864010000000441 26.4183860000000053
  46  1     16.2874219999999994 2.9310740000000162 9.7844920000000002
  47  1     16.3750940000000007 4.7473760000000134 8.3955409999999997
  48  1     15.0274920000000023 2.9640190000000128 7.9188530000000004
  49  1     6.7233320000000001 7.8117790000000475 29.0981580000000015
  50  1     8.3380559999999999 8.7015860000000522 30.4534200000000048
  51  1     7.0649380000000006 6.9330730000000509 31.1427359999999993
  52  1     26.0360769999999988 14.9055510000000364 21.5532310000000003
  53  1     25.3124409999999997 15.7120110000000377 23.5686220000000048
  54  1     25.0003450000000029 16.9026340000000381 21.6428400000000032
  55  1     12.2365390000000023 18.0003000000000171 11.5796189999999992
  56  1     10.1601999999999997 18.9059060000000194 11.9029080000000000
  57  1     11.1581880000000009 17.6396620000000226 13.5228669999999997
  58  1     3.1398679999999999 7.4900300000000115 7.2063220000000010
  59  1     4.7600600000000002 6.7732750000000088 5.7581970000000000
  60  1     2.9289019999999999 7.9151320000000078 5.0054360000000004
  61  1     5.6779380000000002 3.1421190000000072 4.3163619999999998
  62  1     6.0515109999999996 1.7231990000000097 6.0721900000000000
  63  1     4.9988450000000002 1.0000490000000066 4.1767820000000002
  64  1     23.4466350000000006 18.4729990000000264 16.4587560000000011
  65  1     22.4950359999999989 18.3152420000000262 14.3838109999999997
  66  1     21.2596440000000015 18.9421170000000245 16.2016279999999995
  67  1     1.1817709999999999 30.2129200000000431 26.2772590000000008
  68  1     2.2356149999999997 31.1427180000000376 24.4715150000000037
  69  1     3.2610570000000001 31.0440180000000439 26.5116980000000027
  70  1     29.2617520000000049 23.8759450000000406 24.0279640000000008
  71  1     30.7570450000000051 25.3256620000000403 24.9757210000000001
  72  1     31.1428989999999999 23.0729540000000384 24.9690310000000011
  73  1     1.9911560000000004 10.1191760000000350 22.2673899999999989
  74  1     1.0631699999999999 10.6894300000000317 20.2550589999999993
  75  1     1.0000219999999997 12.1268650000000378 22.0308449999999993
  76  1     20.8417610000000018 17.3631600000000432 27.4352480000000014
  77  1     20.4691890000000001 15.1916740000000487 28.0530389999999983
  78  1     18.9172130000000003 16.3552140000000428 26.8442500000000024
  79  1     26.0271819999999998 15.1825180000000124 7.7950770000000009
  80  1     25.7655200000000022 12.9385180000000126 7.4320040000000009
  81  1     27.1403129999999990 14.1937830000000123 6.1061550000000002
  82  1     20.7193040000000011 6.3404380000000149 8.6074400000000004
  83  1     20.2408940000000008 8.1426420000000128 7.2811640000000004
  84  1     19.2157699999999991 7.8642930000000151 9.3048400000000004
  85  1     8.6368620000000043 29.2077900000000099 7.1528099999999997
  86  1     8.1755499999999994 30.8641450000000184 8.6626130000000003
  87  1     7.7354850000000006 31.1428860000000114 6.4372439999999997
  88  1     18.9583629999999985 11.0280610000000312 18.8741820000000047
  89  1     18.4544449999999998 13.0612730000000283 17.9533449999999988
  90  1     20.4848830000000000 12.6820100000000302 18.9316609999999983
  91  1     1.9180910000000002 1.0000860000000262 16.1825949999999992
  92  1     0.9999970000000000 1.0962070000000297 18.2763209999999994
  93  1     1.5903370000000001 3.0014550000000275 17.1604570000000010
  94  1     16.3373870000000032 16.4021550000000182 10.2380560000000003
  95  1     18.0771470000000001 14.9159910000000178 10.2574410000000000
  96  1     16.7055700000000016 15.1001510000000163 8.4385169999999992
  97  1     1.0001179999999998 13.9487000000000325 19.9798809999999989
  98  1     1.1334730000000000 14.8571790000000377 22.0757599999999989
  99  1     2.0302810000000000 15.9298570000000339 20.2678000000000011
 100  1     28.6709889999999987 12.2646530000000205 12.8814550000000008
 101  1     30.6359299999999983 12.4125710000000193 11.7182910000000007
 102  1     30.5527389999999990 11.4013750000000229 13.7662610000000001
 103  1     19.2213640000000048 16.1426700000000345 20.9798089999999995
 104  1     19.0415560000000035 13.8617180000000353 20.9523900000000012
 105  1     17.1857809999999986 15.1878620000000346 21.0975259999999984
 106  1     29.4341650000000037 7.5276000000000032 2.3942909999999999
 107  1     27.8003089999999986 6.7390220000000030 0.9998450000000001
 108  1     28.1994420000000012 8.9807510000000015 1.1972420000000001
 109  1     16.9752870000000016 20.1416440000000350 19.8281220000000005
 110  1     17.8035509999999988 20.7343790000000361 21.8771389999999997
 111  1     18.8253440000000012 21.4188940000000336 19.9507440000000003
 112  1     15.6730250000000009 12.3977210000000362 20.6306699999999985
 113  1     16.2772790000000001 11.5189290000000302 18.6062130000000003
 114  1     16.2318250000000006 10.2214240000000345 20.4871799999999986
 115  1     17.3791979999999988 21.6369150000000161 11.2233169999999998
 116  1     17.6960650000000008 21.0055000000000227 13.3997209999999995
 117  1     19.3843630000000005 20.8413750000000171 11.8679450000000006
 118  1     27.5908160000000002 27.2074080000000436 26.9948520000000016
 119  1     25.9574950000000051 26.5482450000000476 28.4555329999999991
 120  1     27.8610930000000039 25.3133540000000465 28.1817080000000004
 121  1     21.3988259999999997 28.0010140000000476 28.5469299999999997
 122  1     21.2803749999999994 26.5820840000000480 30.3381399999999992
 123  1     21.3807170000000006 25.7762360000000470 28.2017500000000041
 124  1     10.2057939999999991 13.4967340000000089 5.9433190000000007
 125  1     10.6142950000000003 14.5591910000000073 3.9583400000000006
 126  1     11.8961900000000007 14.9773410000000098 5.8037450000000002
 127  1     14.9156990000000000 1.1972610000000488 30.2122980000000041
 128  1     16.8722700000000003 2.3200450000000492 30.5957170000000040
 129  1     14.9354110000000002 3.4477230000000487 30.1478950000000019
 130  1     8.5246350000000000 14.1397210000000175 10.3412299999999995
 131  1     10.3335519999999992 15.5304530000000174 10.5130020000000020
 132  1     8.2122980000000005 16.3093100000000213 10.8554709999999996
 133  1     19.0033859999999990 29.6719320000000479 29.1220269999999992
 134  1     20.8502650000000003 30.0006770000000529 30.4322900000000018
 135  1     18.7742569999999986 30.6428020000000494 31.1404490000000038
 136  1     1.9548850000000000 2.8722230000000417 25.6715219999999995
 137  1     1.0000070000000003 1.3075760000000438 27.0411609999999989
 138  1     1.0800950000000000 1.0000070000000401 24.7778419999999997
 139  1     30.0136749999999992 22.7264410000000048 1.7113689999999999
 140  1     30.8099080000000001 20.7026129999999995 1.0000610000000001
 141  1     31.0762970000000003 21.3773890000000080 3.1673950000000000
 142  1     18.2017029999999984 18.3597040000000185 11.9260350000000006
 143  1     16.1329799999999999 19.1274630000000165 11.3204300000000000
 144  1     16.4550769999999993 18.0576490000000227 13.3142630000000004
 145  1     17.9374010000000013 22.4441290000000073 1.9533060000000002
 146  1     16.0056420000000017 21.6717130000000004 1.0006740000000001
 147  1     17.9074540000000049 20.4041430000000013 1.0011120000000000
 148  1     5.0227100000000000 10.6499140000000416 25.5074930000000002
 149  1     5.9933820000000004 11.0785110000000380 23.4801980000000015
 150  1     7.1065050000000012 9.9041240000000403 25.0943210000000008
 151  1     23.6728859999999983 20.3858300000000057 4.0448950000000004
 152  1     24.5953209999999984 18.3772380000000055 4.6369210000000001
 153  1     23.7984140000000046 18.7303430000000048 2.5241319999999998
 154  1     12.4882939999999998 14.6805160000000487 29.0712800000000016
 155  1     12.4324360000000009 15.7589750000000457 27.0539470000000009
 156  1     11.8473860000000002 16.8370100000000491 28.9824650000000013
 157  1     6.6992420000000008 20.6280560000000150 8.8297050000000006
 158  1     4.9272330000000002 21.8839050000000164 8.1095279999999992
 159  1     4.7404219999999997 20.5207850000000178 9.9345289999999995
 160  1     24.0771170000000012 13.2007450000000173 11.5342950000000002
 161  1     23.6063019999999995 15.0481780000000160 10.2689290000000000
 162  1     25.5107520000000036 13.8342860000000165 9.9179919999999999
 163  1     4.8433219999999997 29.0970699999999987 1.0000160000000000
 164  1     6.3023290000000003 27.5442320000000045 1.8341730000000003
 165  1     5.4668239999999999 29.2073930000000033 3.1606150000000000
 166  1     27.6690240000000038 27.4590430000000509 30.1848010000000002
 167  1     25.6198750000000004 27.0934180000000495 31.1351340000000043
 168  1     26.5674759999999992 29.1732300000000500 31.1425429999999999
 169  1     3.7527119999999998 17.0554980000000107 7.1270579999999999
 170  1     4.2213110000000000 17.8270460000000135 9.2296639999999996
 171  1     2.2753420000000002 18.3939400000000184 8.1735120000000006
 172  1     1.9632500000000002 25.3881920000000036 2.7507260000000002
 173  1     1.0170789999999998 24.2508510000000008 1.0051490000000001
 174  1     1.0000010000000001 26.5353940000000001 1.0698950000000000
 175  1     25.9498970000000000 28.3406670000000069 4.3223110000000000
 176  1     27.0521850000000050 26.8316140000000019 3.0018760000000002
 177  1     25.0391849999999998 26.3150060000000110 3.9529660000000000
 178  1     7.2975370000000002 3.2212120000000377 23.2515810000000016
 179  1     7.8364960000000004 1.0000550000000372 23.1429049999999989
 180  1     6.2118750000000009 1.8849170000000353 21.8007990000000014
 181  1     30.8672460000000015 10.6377350000000490 31.1393869999999993
 182  1     30.4453589999999998 8.4784870000000492 30.5105119999999985
 183  1     29.8567579999999992 10.2325020000000482 29.1686470000000000
 184  1     25.9144229999999993 2.4149010000000399 24.4229260000000004
 185  1     27.5521250000000002 1.0006270000000381 23.6788939999999997
 186  1     27.0672050000000013 1.1732920000000420 25.9056989999999985
 187  1     11.8370379999999997 7.8204730000000424 25.6091650000000044
 188  1     12.2406370000000013 5.9316910000000398 24.3822040000000015
 189  1     10.7354610000000044 7.4982090000000383 23.6722110000000043
 190  1     2.0812810000000002 10.4775030000000253 15.7781460000000013
 191  1     1.0000060000000000 8.4700690000000272 15.5861009999999993
 192  1     3.1982250000000003 8.6848430000000256 14.9984510000000011
 193  1     16.1743850000000009 29.1621750000000048 2.9183780000000001
 194  1     14.8614909999999991 28.3648550000000057 4.6143770000000002
 195  1     14.0026609999999998 29.7488130000000055 3.0110390000000002
 196  1     17.0935440000000014 12.8316560000000219 12.7384930000000001
 197  1     16.0552410000000023 12.1205160000000181 10.8274640000000009
 198  1     15.0895569999999992 13.6912720000000210 12.1779469999999996
 199  1     4.4616200000000008 26.7437140000000149 7.9485919999999997
 200  1     5.9200730000000004 27.9910620000000137 9.1947320000000001
 201  1     6.1818630000000008 27.7829850000000143 6.9338050000000004
 202  1     7.1639899999999992 25.3632390000000463 27.4632910000000017
 203  1     8.8280820000000002 26.9033270000000471 27.7711060000000032
 204  1     6.9754940000000003 27.4032350000000413 26.5294810000000041
 205  1     10.2931220000000003 22.4344780000000057 4.2914709999999996
 206  1     11.9398920000000004 22.3261100000000106 5.8764729999999998
 207  1     12.3425250000000002 21.7018110000000064 3.7150479999999999
 208  1     22.9660860000000007 30.6325150000000477 27.6495950000000015
 209  1     22.5146760000000015 31.1428640000000421 25.4651960000000024
 210  1     24.4654349999999994 30.1077810000000454 26.0540630000000029
 211  1     2.0613329999999999 17.2365230000000409 27.3141080000000009
 212  1     1.5458880000000002 17.0274180000000399 25.0945539999999987
 213  1     3.4319690000000005 18.1292810000000415 25.7670279999999998
 214  1     2.5296789999999998 5.7754920000000229 13.5066889999999997
 215  1     1.0051020000000002 7.4671380000000216 13.2834730000000008
 216  1     1.0159049999999998 5.6934590000000203 11.8420950000000023
 217  1     19.8096859999999992 12.9280590000000117 7.4164930000000000
 218  1     20.5192850000000000 12.3435790000000090 5.3210980000000001
 219  1     20.6462159999999990 10.8680610000000115 7.0618900000000009
 220  1     7.0831210000000011 14.5666000000000100 6.7083250000000012
 221  1     7.8792590000000002 13.2347970000000092 5.0265730000000000
 222  1     6.4172099999999999 14.9362930000000063 4.5895979999999996
 223  1     11.3372109999999999 26.2776410000000062 2.8388369999999998
 224  1     12.9779800000000005 25.5821620000000038 1.4035629999999999
 225  1     10.7797330000000002 25.1041740000000004 1.0000030000000000
 226  1     3.6851319999999999 21.2030970000000387 24.1544080000000001
 227  1     1.8156470000000000 19.9182110000000421 24.4542700000000046
 228  1     2.8242109999999996 20.9605780000000479 26.2205919999999999
 229  1     26.0997950000000074 2.0789970000000162 9.9345210000000002
 230  1     25.9016629999999992 3.9309480000000137 8.6052940000000024
 231  1     24.7251030000000007 3.7501230000000167 10.5563529999999997
 232  1     7.3128970000000004 22.2652280000000324 18.9273710000000008
 233  1     8.2247620000000001 24.2671340000000271 18.2975300000000018
 234  1     6.4173260000000010 23.3990150000000305 17.2006410000000010
 235  1     29.0172549999999987 2.8058760000000023 1.4265939999999999
 236  1     30.3554649999999988 0.9970380000000016 1.0105120000000001
 237  1     31.1427849999999999 2.8030170000000041 2.1690399999999999
 238  1     10.9724039999999992 26.4312650000000424 25.5171020000000013
 239  1     8.8473940000000013 25.8741070000000377 24.8769959999999983
 240  1     9.4496260000000021 28.0567570000000401 25.1884080000000026
 241  1     23.0569950000000006 2.1113600000000341 20.8774930000000012
 242  1     21.7249939999999988 1.2938620000000312 19.2061770000000003
 243  1     21.1444270000000003 1.0458680000000347 21.4027799999999999
 244  1     9.6443159999999999 31.1429000000000045 2.2555890000000001
 245  1     7.6518530000000000 30.1965070000000075 1.6471030000000000
 246  1     9.6059269999999994 29.0191590000000019 1.5090200000000000
 247  1     8.5039079999999991 31.1117820000000336 19.7694730000000014
 248  1     10.5167420000000007 31.1428950000000313 18.6816520000000033
 249  1     10.1005560000000010 29.6327620000000316 20.3459560000000010
 250  1     17.8430170000000068 7.7306030000000101 5.6239860000000013
 251  1     17.1758220000000001 8.9013060000000053 3.7746270000000002
 252  1     15.6777549999999994 7.6937770000000079 5.0080330000000002
 253  1     9.6823429999999995 13.1319980000000278 16.8277750000000026
 254  1     9.5764580000000006 10.9126380000000260 16.2809179999999998
 255  1     9.5344370000000023 11.5913770000000316 18.4629280000000016
 256  1     6.0416230000000013 28.5203400000000507 31.1428000000000011
 257  1     5.3663409999999994 30.7011390000000546 30.9880940000000038
 258  1     4.1074240000000000 29.0125110000000497 30.1008029999999991
 259  1     7.9107870000000009 26.5817590000000408 22.3313990000000011
 260  1     6.9661379999999999 28.2027800000000433 23.6412680000000002
 261  1     5.6968779999999999 26.5305900000000356 22.7377290000000016
 262  1     1.0000140000000000 22.1704860000000146 6.7281079999999998
 263  1     1.3655259999999998 21.0544920000000140 8.6919780000000024
 264  1     2.8080650000000005 20.8443590000000114 6.9317089999999997
 265  1     7.1090830000000000 23.6307010000000126 8.2432820000000007
 266  1     6.9420840000000013 22.8380820000000178 10.3833029999999997
 267  1     8.6300910000000002 24.2563080000000149 9.7808989999999998
 268  1     26.9432149999999986 16.0154930000000491 30.1743099999999984
 269  1     27.0930399999999985 18.0949680000000548 31.1172640000000023
 270  1     28.8715569999999992 16.6597300000000494 31.1415590000000009
 271  1     28.9855809999999998 28.4572160000000380 23.8616920000000015
 272  1     31.1406910000000003 27.6910440000000406 23.7960750000000019
 273  1     30.5246830000000031 29.5736660000000384 22.6559470000000012
 274  1     29.1092280000000017 26.2324140000000305 19.7957190000000018
 275  1     28.2907019999999996 24.1137070000000335 19.5183730000000004
 276  1     29.7177159999999994 24.6099960000000344 21.2332919999999987
 277  1     11.3598789999999994 2.5069390000000262 16.0624740000000017
 278  1     13.0163860000000007 1.0004170000000265 16.5338570000000011
 279  1     11.0840080000000007 1.0462630000000286 17.7534610000000015
 280  1     1.0000500000000003 29.2165030000000279 16.6446240000000003
 281  1     1.4432730000000003 27.3914860000000289 15.3374539999999993
 282  1     2.8702150000000000 29.1760100000000300 15.3916440000000012
 283  1     4.2471220000000001 9.7048480000000072 3.8607580000000001
 284  1     5.6709100000000010 8.0005240000000057 3.3094549999999998
 285  1     4.4380320000000006 9.0695840000000043 1.7092220000000000
 286  1     25.6477040000000045 3.1313100000000245 15.0792389999999994
 287  1     26.2176140000000046 0.9997410000000234 14.4730699999999999
 288  1     26.0234490000000029 1.5864970000000271 16.6734420000000014
 289  1     24.1823790000000010 13.3991340000000410 24.7811290000000000
 290  1     22.7563350000000000 13.1047040000000425 26.5462160000000011
 291  1     22.5876529999999995 11.8138600000000409 24.6676819999999992
 292  1     19.3329489999999993 3.8101350000000505 31.1418649999999992
 293  1     19.6570630000000008 1.5540330000000502 30.9399319999999989
 294  1     21.1603349999999999 3.0420920000000482 30.0742109999999983
 295  1     3.9527290000000006 14.9909890000000203 11.6292519999999993
 296  1     4.4019539999999990 16.9064680000000216 12.7975659999999998
 297  1     2.6210539999999996 16.7878050000000165 11.3700030000000023
 298  1     30.1921730000000004 12.2562320000000433 26.2215389999999999
 299  1     31.1415220000000019 14.3351970000000435 26.1098710000000018
 300  1     31.1277399999999993 12.9475490000000395 24.2938690000000008
 301  1     14.1766120000000022 29.2728240000000248 13.4144700000000014
 302  1     14.6971779999999992 30.2355190000000178 11.4049790000000009
 303  1     15.7839159999999996 28.3598220000000225 12.1291220000000006
 304  1     28.6885580000000004 15.0679750000000059 3.0621280000000000
 305  1     30.5933890000000019 15.1187850000000061 1.7952969999999999
 306  1     28.6746690000000015 14.1654340000000012 0.9995230000000002
 307  1     6.8453340000000003 25.3947800000000221 13.2825430000000004
 308  1     6.3336560000000004 25.9016810000000248 15.4544230000000002
 309  1     5.2765389999999996 26.9493540000000209 13.7199190000000009
 310  1     11.6249029999999998 18.7824100000000378 23.8822580000000038
 311  1     10.4200330000000001 20.6090830000000373 24.5511210000000020
 312  1     12.0395930000000018 19.7113510000000431 25.8907940000000032
 313  1     28.2355780000000003 3.9572010000000177 10.9619029999999995
 314  1     29.2438409999999998 5.5748370000000156 9.6960099999999994
 315  1     30.3453949999999999 4.5839480000000190 11.4362230000000000
 316  1     27.4294890000000002 2.6086560000000074 4.3299719999999997
 317  1     28.8880009999999992 1.0068900000000061 3.5931470000000001
 318  1     28.1200450000000046 1.0000090000000093 5.7457770000000004
 319  1     6.9845499999999996 21.1369850000000028 3.2296619999999998
 320  1     7.3680360000000000 23.0308390000000074 4.4552560000000003
 321  1     6.4492370000000010 21.1718490000000088 5.4162889999999999
 322  1     24.7720140000000022 6.4583150000000167 10.6799060000000008
 323  1     26.9281350000000046 6.9902130000000158 10.1284970000000012
 324  1     25.3442140000000009 8.6167130000000167 10.3917750000000026
 325  1     6.3743250000000007 15.9674850000000355 20.6940260000000009
 326  1     8.6415539999999993 15.7103120000000338 20.5226840000000053
 327  1     7.4059910000000002 16.4734270000000329 18.7578430000000047
 328  1     11.0567750000000000 9.3197030000000307 18.2423700000000011
 329  1     11.0669799999999992 7.5856210000000273 16.7494939999999986
 330  1     13.0083210000000005 8.3434320000000284 17.6878630000000037
 331  1     19.7290780000000012 29.8718120000000376 24.9828429999999990
 332  1     20.3217709999999983 30.8327990000000440 26.9730800000000031
 333  1     18.2346900000000005 31.1380830000000444 26.0930140000000002
 334  1     5.8144380000000000 14.2355270000000456 27.5025650000000006
 335  1     4.4970140000000010 15.1233190000000484 29.1493940000000009
 336  1     3.6963959999999996 14.8339560000000468 27.0283330000000035
 337  1     23.7967249999999986 12.3716850000000225 14.1447920000000007
 338  1     22.8356490000000036 14.3015660000000242 14.9114190000000022
 339  1     22.3348970000000016 12.2809210000000260 15.8547440000000019
 340  1     20.4165899999999993 6.0068320000000330 20.0826570000000046
 341  1     18.5728040000000014 7.3330760000000321 19.8045330000000028
 342  1     18.3787239999999983 5.1961240000000330 20.5915460000000010
 343  1     8.7938190000000009 9.1971510000000052 3.4994960000000002
 344  1     8.5304710000000004 7.6263240000000083 5.1423519999999998
 345  1     7.9999250000000002 7.1581450000000055 2.9691169999999998
 346  1     24.3514280000000021 26.4314760000000213 11.2168240000000008
 347  1     22.5534810000000014 26.0241370000000209 12.5722900000000006
 348  1     22.4372550000000004 25.6570400000000198 10.3194350000000004
 349  1     18.6866459999999996 3.1957960000000192 11.9110160000000000
 350  1     18.5615309999999987 1.0004070000000183 11.2782119999999999
 351  1     17.1816950000000013 1.8407040000000208 12.8948680000000007
 352  1     23.5838169999999998 18.4596790000000510 31.1427720000000008
 353  1     24.8021209999999996 20.3676970000000495 30.8095679999999987
 354  1     24.9471060000000016 18.6089410000000477 29.3571980000000003
 355  1     25.7024399999999993 6.5569330000000097 5.8332839999999999
 356  1     25.5398810000000012 7.0905030000000071 3.6141169999999998
 357  1     23.7390250000000016 7.2866730000000093 5.0076939999999999
 358  1     12.4905460000000001 29.0827820000000266 16.3905749999999983
 359  1     11.2326309999999996 30.8329960000000263 15.6223100000000024
 360  1     12.8173359999999992 31.1421210000000315 17.2399549999999984
 361  1     25.8569580000000023 23.1670890000000114 6.1291370000000001
 362  1     23.6969170000000027 23.9217560000000127 6.1061310000000004
 363  1     25.4069670000000016 25.2663710000000101 6.8071030000000006
 364  1     29.0844640000000005 19.9577020000000438 27.3644650000000027
 365  1     27.1419679999999985 19.2795710000000469 28.3658010000000012
 366  1     29.1447840000000049 18.3235710000000473 28.9120740000000005
 367  1     28.0735440000000018 20.9475930000000261 16.1551809999999989
 368  1     27.1716780000000000 20.4633040000000221 14.1087390000000017
 369  1     26.7583300000000044 19.1351210000000265 15.9222149999999996
 370  1     6.1438990000000002 3.4596250000000142 8.7092670000000005
 371  1     4.1200960000000011 2.4626750000000146 9.0915440000000007
 372  1     5.2587250000000001 3.5017250000000173 10.7790040000000005
 373  1     11.8634430000000002 14.4019530000000398 22.7143629999999987
 374  1     12.8084910000000018 14.5137970000000429 24.7952770000000022
 375  1     14.0452370000000002 14.9196270000000375 22.9166109999999996
 376  1     12.8972029999999993 3.7658320000000303 18.7001910000000002
 377  1     13.2864470000000008 1.6025840000000313 19.3363280000000053
 378  1     14.8122040000000013 2.7547600000000299 18.0840600000000009
 379  1     4.6666000000000007 30.0947400000000194 11.5035050000000005
 380  1     5.4754730000000000 30.9785790000000141 9.5540489999999991
 381  1     6.6592700000000011 31.1427770000000201 11.5021979999999999
 382  1     12.3387499999999992 3.2923040000000214 13.2262930000000019
 383  1     11.0723389999999995 4.6784500000000229 14.5342040000000026
 384  1     10.1452399999999994 3.5394690000000208 12.7829660000000018
 385  1     2.5824690000000001 6.4165250000000382 23.5114750000000043
 386  1     2.2997419999999997 5.6316580000000416 25.6421729999999997
 387  1     4.2762960000000003 6.5733830000000397 24.9864199999999990
 388  1     6.5622790000000002 29.1454150000000283 18.5781519999999993
 389  1     5.4870160000000006 31.1428890000000358 18.8777030000000003
 390  1     6.3487100000000014 30.5627640000000298 16.8418840000000003
 391  1     29.7017370000000014 19.8385830000000141 8.7407260000000004
 392  1     27.6658350000000048 20.8637150000000133 8.9408100000000008
 393  1     28.4408460000000005 20.1710720000000094 6.9053180000000003
 394  1     10.7581629999999997 27.2117160000000275 15.0845430000000018
 395  1     8.6402140000000003 27.3706690000000208 14.2331620000000019
 396  1     9.1819009999999999 25.7474570000000256 15.7482129999999998
 397  1     17.6575629999999997 12.1623330000000092 5.8712890000000000
 398  1     18.7414360000000038 10.2687530000000109 5.1817979999999997
 399  1     16.7198479999999989 10.1491480000000109 6.2412780000000003
 400  1     22.6304340000000010 4.9448590000000072 4.2746149999999998
 401  1     23.2896779999999985 6.0696620000000046 2.3941780000000001
 402  1     21.1491439999999997 6.2375900000000053 3.1774640000000001
 403  1     9.2142070000000000 1.6367590000000034 1.8801150000000002
 404  1     11.2282630000000019 1.0000160000000016 1.0003640000000000
 405  1     10.7075730000000000 3.2086340000000022 1.2733330000000000
 406  1     11.8854100000000003 6.4802280000000057 3.0655320000000001
 407  1     12.8325350000000018 7.1067270000000082 5.0520560000000012
 408  1     13.9531969999999994 7.3708600000000057 3.0777280000000000
 409  1     28.9168659999999988 16.7218630000000168 11.2016570000000009
 410  1     27.5539479999999983 15.1668870000000204 12.1816209999999998
 411  1     29.1865619999999986 14.5414500000000171 10.7095400000000005
 412  1     6.7279450000000001 6.5734680000000223 13.8239780000000003
 413  1     7.1122769999999997 4.7964050000000249 15.2132810000000003
 414  1     8.7696159999999992 6.2945240000000240 14.7311090000000018
 415  1     17.0290460000000046 14.3540930000000522 31.1428690000000010
 416  1     15.0542599999999993 15.5099270000000491 31.1331830000000025
 417  1     15.6231419999999996 14.1355490000000472 29.3979369999999989